 Gaussian 09, Revision D.01,

 ------------------------------------
 #P pbe1pbe/aug-cc-pvtz symmetry=none
 ------------------------------------

 --------------------
 Ionization potential
 --------------------
 Symbolic Z-matrix:
 Charge =  1 Multiplicity = 1

 SCF Done:  E(RPBE1PBE) =  -383.541425282     A.U. after   12 cycles
 Normal termination of Gaussian 09 at Sun Nov 10 00:04:56 2019.
 Gaussian 09:  EM64L-G09RevD.01 24-Apr-2013

 ------------------------------------------------
 #P upbe1pbe/aug-cc-pvtz symmetry=none guess=read
 ------------------------------------------------

 --------------------
 Ionization potential
 --------------------
 Symbolic Z-matrix:
 Charge =  2 Multiplicity = 2

                          Input orientation:
 ---------------------------------------------------------------------
 Center     Atomic      Atomic             Coordinates (Angstroms)
 Number     Number       Type             X           Y           Z
 ---------------------------------------------------------------------
      1          6           0        1.153025    0.529296   -0.125574
      2          7           0        2.376677   -0.015185    0.102483
      3          6           0        2.287328   -1.394717    0.004786
      4          6           0        0.981266   -1.694465   -0.290131
      5          7           0        0.296556   -0.493954   -0.371674
      6          6           0       -1.152670   -0.367835   -0.625721
      7          6           0       -1.993974   -0.502499    0.640679
      8          1           0       -1.843134   -1.486425    1.126822
      9          1           0       -1.761954    0.290859    1.378861
     10          1           0       -1.317798    0.606843   -1.124228
     11          1           0       -1.410697   -1.150298   -1.366254
     12          1           0        0.490024   -2.659004   -0.452403
     13          1           0        3.155008   -2.046219    0.147995
     14          6           0        3.605264    0.728650    0.391078
     15          1           0        3.487340    1.331051    1.312009
     16          1           0        4.424160    0.004891    0.545792
     17          1           0        3.869311    1.388383   -0.457348
     18          6           0        0.816585    1.976987   -0.135590
     19          1           0        0.595259    2.330751   -1.165042
     20          1           0       -0.071480    2.188527    0.492251
     21          1           0        1.655723    2.580954    0.252603
     22          1           0       -3.066119   -0.416520    0.377146
 ---------------------------------------------------------------------

 SCF Done:  E(UPBE1PBE) =  -383.049690621     A.U. after   15 cycles

 Alpha  occ. eigenvalues --  -14.86142 -14.85638 -10.73996 -10.70142 -10.69900
 Alpha  occ. eigenvalues --  -10.59905 -10.59894 -10.58796 -10.51237  -1.48566
 Alpha  occ. eigenvalues --   -1.35156  -1.22920  -1.15534  -1.10246  -1.08696
 Alpha  occ. eigenvalues --   -1.04206  -0.99069  -0.96235  -0.91139  -0.89745
 Alpha  occ. eigenvalues --   -0.86724  -0.83705  -0.82832  -0.81593  -0.79212
 Alpha  occ. eigenvalues --   -0.77894  -0.76531  -0.75627  -0.74301  -0.73027
 Alpha  occ. eigenvalues --   -0.67830  -0.67375  -0.66719  -0.66137
 Alpha virt. eigenvalues --   -0.39497  -0.38309  -0.28126  -0.25958  -0.24111
 Alpha virt. eigenvalues --   -0.24058  -0.23100  -0.22972  -0.22159  -0.21393
 Alpha virt. eigenvalues --   -0.20758  -0.19810  -0.19645  -0.18601  -0.18303

  Beta  occ. eigenvalues --  -14.86241 -14.85721 -10.73403 -10.69526 -10.69317
  Beta  occ. eigenvalues --  -10.59900 -10.59888 -10.58794 -10.51231  -1.47846
  Beta  occ. eigenvalues --   -1.35090  -1.21018  -1.15244  -1.09525  -1.08398
  Beta  occ. eigenvalues --   -1.03615  -0.98801  -0.95726  -0.90587  -0.87732
  Beta  occ. eigenvalues --   -0.86261  -0.83367  -0.82746  -0.81192  -0.78952
  Beta  occ. eigenvalues --   -0.76494  -0.76284  -0.75484  -0.74227  -0.71902
  Beta  occ. eigenvalues --   -0.67800  -0.66639  -0.66098
  Beta virt. eigenvalues --   -0.55934  -0.36556  -0.33769  -0.27786  -0.25742
  Beta virt. eigenvalues --   -0.23916  -0.23716  -0.22827  -0.22651  -0.21895
  Beta virt. eigenvalues --   -0.21178  -0.20618  -0.19598  -0.19277  -0.18426

 Mulliken charges and spin densities:
               1          2
     1  C    0.042861   0.287458
     2  N    0.066142  -0.046094
     3  C   -0.182552   0.383503
     4  C   -0.399376   0.351885
     5  N    0.247593  -0.044504
     6  C   -0.332326   0.008925
     7  C   -0.659800   0.002704
     8  H    0.235329  -0.000270
     9  H    0.265903  -0.000324
    10  H    0.223360  -0.000876
    11  H    0.188095  -0.000078
    12  H    0.536438  -0.003645
    13  H    0.673849   0.011610
    14  C   -0.752488   0.003768
    15  H    0.356084  -0.001225
    16  H    0.248477   0.000071
    17  H    0.352019  -0.000933
    18  C   -0.320190  -0.014772
    19  H    0.355742   0.038854
    20  H    0.358831   0.027275
    21  H    0.215984  -0.004286
    22  H    0.280024   0.000955
 Sum of Mulliken charges =   2.00000   1.00000

 Dipole moment (field-independent basis, Debye):
    X=             11.2785    Y=             -1.5484    Z=             -0.7049  Tot=             11.4061
 Quadrupole moment (field-independent basis, Debye-Ang):
   XX=              1.4738   YY=            -22.6263   ZZ=            -46.9723
   XY=             -0.2478   XZ=              3.1293   YZ=              1.2668

 Normal termination of Gaussian 09 at Sun Nov 10 00:56:11 2019.
