                               Psi4 1.2.1 release

  ==> Input File <==

--------------------------------------------------------------------------
molecule target {
 noreorient
 nocom
1 1
C 1.1530248 0.52929646 -0.12557359
N 2.3766766 -0.015184514 0.1024829
C 2.2873282 -1.3947171 0.004785758
C 0.9812654 -1.6944653 -0.2901313
N 0.2965558 -0.49395415 -0.37167448
C -1.1526698 -0.36783463 -0.62572074
C -1.9939742 -0.5024993 0.6406791
H -1.8431337 -1.4864252 1.1268218
H -1.7619543 0.29085904 1.3788607
H -1.3177977 0.60684305 -1.1242282
H -1.4106971 -1.1502981 -1.3662536
H 0.49002415 -2.6590042 -0.4524029
H 3.1550078 -2.0462186 0.14799531
C 3.6052637 0.72865 0.39107847
H 3.4873402 1.3310506 1.3120092
H 4.42416 0.0048906235 0.54579234
H 3.8693109 1.3883828 -0.45734793
C 0.8165846 1.9769865 -0.13559024
H 0.595259 2.330751 -1.1650416
H -0.071480446 2.1885266 0.49225134
H 1.655723 2.5809536 0.25260288
H -3.066119 -0.41652036 0.37714565
}

set {
basis aug-cc-pvdz
scf_type df
reference rks
DFT_GRAC_SHIFT .068574661
}

E, wfn = prop('pbe', properties=["GRID_ESP", "GRID_FIELD"], return_wfn=True)
Vvals = wfn.oeprop.Vvals()
Exvals = wfn.oeprop.Exvals()
Eyvals = wfn.oeprop.Eyvals()
Ezvals = wfn.oeprop.Ezvals()

--------------------------------------------------------------------------

    Molecular point group: c1

    Geometry (in Angstrom), charge = 1, multiplicity = 1:

       Center              X                  Y                   Z               Mass
    ------------   -----------------  -----------------  -----------------  -----------------
         C            1.153024800000     0.529296460000    -0.125573590000    12.000000000000
         N            2.376676600000    -0.015184514000     0.102482900000    14.003074004780
         C            2.287328200000    -1.394717100000     0.004785758000    12.000000000000
         C            0.981265400000    -1.694465300000    -0.290131300000    12.000000000000
         N            0.296555800000    -0.493954150000    -0.371674480000    14.003074004780
         C           -1.152669800000    -0.367834630000    -0.625720740000    12.000000000000
         C           -1.993974200000    -0.502499300000     0.640679100000    12.000000000000
         H           -1.843133700000    -1.486425200000     1.126821800000     1.007825032070
         H           -1.761954300000     0.290859040000     1.378860700000     1.007825032070
         H           -1.317797700000     0.606843050000    -1.124228200000     1.007825032070
         H           -1.410697100000    -1.150298100000    -1.366253600000     1.007825032070
         H            0.490024150000    -2.659004200000    -0.452402900000     1.007825032070
         H            3.155007800000    -2.046218600000     0.147995310000     1.007825032070
         C            3.605263700000     0.728650000000     0.391078470000    12.000000000000
         H            3.487340200000     1.331050600000     1.312009200000     1.007825032070
         H            4.424160000000     0.004890623500     0.545792340000     1.007825032070
         H            3.869310900000     1.388382800000    -0.457347930000     1.007825032070
         C            0.816584600000     1.976986500000    -0.135590240000    12.000000000000
         H            0.595259000000     2.330751000000    -1.165041600000     1.007825032070
         H           -0.071480446000     2.188526600000     0.492251340000     1.007825032070
         H            1.655723000000     2.580953600000     0.252602880000     1.007825032070
         H           -3.066119000000    -0.416520360000     0.377145650000     1.007825032070

  Charge       = 1
  Multiplicity = 1
  Basis Set: AUG-CC-PVDZ
    Blend: AUG-CC-PVDZ
  Basis Set: (AUG-CC-PVDZ AUX)
    Blend: AUG-CC-PVDZ-JKFIT

    Orbital Energies [Eh]
    ---------------------

    Doubly Occupied:

       1A    -14.250969     2A    -14.246083     3A    -10.153408
       4A    -10.103175     5A    -10.102082     6A    -10.100300
       7A    -10.099249     8A    -10.075066     9A    -10.038166
      10A     -1.141783    11A     -1.033580    12A     -0.900224
      13A     -0.876026    14A     -0.819733    15A     -0.804164
      16A     -0.752580    17A     -0.729782    18A     -0.680688
      19A     -0.645029    20A     -0.612220    21A     -0.594317
      22A     -0.575306    23A     -0.571448    24A     -0.550905
      25A     -0.546947    26A     -0.536931    27A     -0.529580
      28A     -0.518999    29A     -0.513895    30A     -0.496637
      31A     -0.476608    32A     -0.458546    33A     -0.426791
      34A     -0.385008

  @DF-RKS Final Energy:  -383.41047085588048

   => Energetics <=

    Nuclear Repulsion Energy =            469.4079408267983240
    One-Electron Energy =               -1435.0102477469492896
    Two-Electron Energy =                 638.0462133905244855
    DFT Exchange-Correlation Energy =     -55.8543773262539389
    Empirical Dispersion Energy =           0.0000000000000000
    VV10 Nonlocal Energy =                  0.0000000000000000
    Total Energy =                       -383.4104708558804759

  Dipole Moment: [D]
     X:     5.3837      Y:     0.2641      Z:    -0.2820     Total:     5.3976

*** Psi4 exiting successfully. Buy a developer a beer!
